                               Psi4 1.1rc1

  ==> Input File <==

--------------------------------------------------------------------------
sys.path.insert(0, './../')
import efp_gamess

memory 900 mb

molecule {
  C      -0.760348   -0.184626   -0.375944
  C      -0.359139    1.221670   -0.221730
  O      0.105433    0.221711    0.712263
  H      -1.062208    1.936726    0.204119
  H       0.417567    1.639988   -0.860411
  H      -0.232306   -0.767959   -1.131840
  C      -2.126083   -0.688966    0.012252
  H      -2.575921   -0.049412    0.778944
  H      -2.787098   -0.705369   -0.863386
  H      -2.062442   -1.709639    0.407385

symmetry c1
}

set {
  #basis aug-cc-pvdz
  basis 6-31g
  puream true
  gauge velocity
  omega [355,436,589,633, nm]
  scf_type pk
  mp2_type conv
}

set efp_gamess {
  print 1
}

set ccresponse {
  maxiter 150
  r_convergence 5
}

egy,wfn=energy('efp_gamess',return_wfn=True)
print(egy)
efp_gamess.exampleFN()
#properties('ccsd',properties=['rotation'],ref_wfn=wfn)
#energy('ccsd',ref_wfn=wfn)
--------------------------------------------------------------------------

    Molecular point group: c1

    Geometry (in Angstrom), charge = 0, multiplicity = 1:

       Center              X                  Y                   Z               Mass
    ------------   -----------------  -----------------  -----------------  -----------------
           C          0.025771173179    -0.323667258819    -0.425750596155    12.000000000000
           C          0.426980173179     1.082628741181    -0.271536596155    12.000000000000
           O          0.891552173179     0.082669741181     0.662456403845    15.994914619560
           H         -0.276088826821     1.797684741181     0.154312403845     1.007825032070
           H          1.203686173179     1.500946741181    -0.910217596155     1.007825032070
           H          0.553813173179    -0.907000258819    -1.181646596155     1.007825032070
           C         -1.339963826821    -0.828007258819    -0.037554596155    12.000000000000
           H         -1.789801826821    -0.188453258819     0.729137403845     1.007825032070
           H         -2.000978826821    -0.844410258819    -0.913192596155     1.007825032070
           H         -1.276322826821    -1.848680258819     0.357578403845     1.007825032070

  Charge       = 0
  Multiplicity = 1
  Basis Set: 6-31G
    Blend: 6-31G

    Orbital Energies (a.u.)
    -----------------------

    Doubly Occupied:

       1A    -20.571109     2A    -11.298960     3A    -11.289314
       4A    -11.233435     5A     -1.416957     6A     -1.018550
       7A     -0.913410     8A     -0.819995     9A     -0.699822
      10A     -0.638564    11A     -0.586335    12A     -0.561199
      13A     -0.527355    14A     -0.508172    15A     -0.444652
      16A     -0.431418

  @RHF Final Energy:  -191.81049473512024

   => Energetics <=

    Nuclear Repulsion Energy =            124.0604480359470188
    One-Electron Energy =                -505.8233949495574961
    Two-Electron Energy =                 189.9524521784902049
    DFT Exchange-Correlation Energy =       0.0000000000000000
    Empirical Dispersion Energy =           0.0000000000000000
    PCM Polarization Energy =               0.0000000000000000
    EFP Energy =                            0.0000000000000000
    Total Energy =                       -191.8104947351202441
*** Psi4 exiting successfully. Buy a developer a beer!
